file 212061 1393522661                                          
version 2
run General-0-20140227-11:33:37-597
attr configname General
attr datetime 20140227-11:33:37
attr experiment General
attr inifile omnetpp.ini
attr iterationvars ""
attr iterationvars2 $repetition=0
attr measurement ""
attr network ClientServerNetwork
attr processid 597
attr repetition 0
attr replication #0
attr resultdir results
attr runnumber 0
attr seedset 0

vector 10  ClientServerNetwork.server.ppp[0].queue  queueLength:vector  ETV
attr interpolationmode  sample-hold
attr title  "queue length, vector"
vector 11  ClientServerNetwork.server.ppp[0].ppp  txState:vector  ETV
attr interpolationmode  sample-hold
attr title  "tx state, vector"
vector 28  ClientServerNetwork.router.ppp[0].queue  queueLength:vector  ETV
attr interpolationmode  sample-hold
attr title  "queue length, vector"
vector 29  ClientServerNetwork.router.ppp[0].ppp  txState:vector  ETV
attr interpolationmode  sample-hold
attr title  "tx state, vector"
vector 39  ClientServerNetwork.router.ppp[1].queue  queueLength:vector  ETV
attr interpolationmode  sample-hold
attr title  "queue length, vector"
vector 40  ClientServerNetwork.router.ppp[1].ppp  txState:vector  ETV
attr interpolationmode  sample-hold
attr title  "tx state, vector"
vector 50  ClientServerNetwork.router.ppp[2].queue  queueLength:vector  ETV
attr interpolationmode  sample-hold
attr title  "queue length, vector"
vector 51  ClientServerNetwork.router.ppp[2].ppp  txState:vector  ETV
attr interpolationmode  sample-hold
attr title  "tx state, vector"
vector 61  ClientServerNetwork.router.ppp[3].queue  queueLength:vector  ETV
attr interpolationmode  sample-hold
attr title  "queue length, vector"
vector 62  ClientServerNetwork.router.ppp[3].ppp  txState:vector  ETV
attr interpolationmode  sample-hold
attr title  "tx state, vector"
vector 72  ClientServerNetwork.router.ppp[4].queue  queueLength:vector  ETV
attr interpolationmode  sample-hold
attr title  "queue length, vector"
vector 73  ClientServerNetwork.router.ppp[4].ppp  txState:vector  ETV
attr interpolationmode  sample-hold
attr title  "tx state, vector"
vector 83  ClientServerNetwork.router.ppp[5].queue  queueLength:vector  ETV
attr interpolationmode  sample-hold
attr title  "queue length, vector"
vector 84  ClientServerNetwork.router.ppp[5].ppp  txState:vector  ETV
attr interpolationmode  sample-hold
attr title  "tx state, vector"
vector 101  ClientServerNetwork.client[0].ppp[0].queue  queueLength:vector  ETV
attr interpolationmode  sample-hold
attr title  "queue length, vector"
vector 102  ClientServerNetwork.client[0].ppp[0].ppp  txState:vector  ETV
attr interpolationmode  sample-hold
attr title  "tx state, vector"
vector 119  ClientServerNetwork.client[1].ppp[0].queue  queueLength:vector  ETV
attr interpolationmode  sample-hold
attr title  "queue length, vector"
vector 120  ClientServerNetwork.client[1].ppp[0].ppp  txState:vector  ETV
attr interpolationmode  sample-hold
attr title  "tx state, vector"
vector 137  ClientServerNetwork.client[2].ppp[0].queue  queueLength:vector  ETV
attr interpolationmode  sample-hold
attr title  "queue length, vector"
vector 138  ClientServerNetwork.client[2].ppp[0].ppp  txState:vector  ETV
attr interpolationmode  sample-hold
attr title  "tx state, vector"
vector 155  ClientServerNetwork.client[3].ppp[0].queue  queueLength:vector  ETV
attr interpolationmode  sample-hold
attr title  "queue length, vector"
vector 156  ClientServerNetwork.client[3].ppp[0].ppp  txState:vector  ETV
attr interpolationmode  sample-hold
attr title  "tx state, vector"
vector 173  ClientServerNetwork.client[4].ppp[0].queue  queueLength:vector  ETV
attr interpolationmode  sample-hold
attr title  "queue length, vector"
vector 174  ClientServerNetwork.client[4].ppp[0].ppp  txState:vector  ETV
attr interpolationmode  sample-hold
attr title  "tx state, vector"
vector 340  ClientServerNetwork.client[0].tcp  tcpRcvQueueBytes  ETV
vector 327  ClientServerNetwork.client[0].tcp  "advertised window"  ETV
vector 326  ClientServerNetwork.client[0].tcp  "receive window"  ETV
vector 329  ClientServerNetwork.client[0].tcp  "sent ack"  ETV
vector 98  ClientServerNetwork.client[0].ppp[0].queue  rcvdPk:vector(packetBytes)  ETV
attr interpolationmode  none
attr title  "received packets, vector(packetBytes)"
vector 100  ClientServerNetwork.client[0].ppp[0].queue  queueingTime:vector  ETV
attr interpolationmode  none
attr title  "queueing time, vector"
vector 107  ClientServerNetwork.client[0].ppp[0].ppp  rcvdPkFromHL:vector(packetBytes)  ETV
attr interpolationmode  none
attr source  packetReceivedFromUpper
attr title  "packets received from higher layer, vector(packetBytes)"
vector 103  ClientServerNetwork.client[0].ppp[0].ppp  txPk:vector(packetBytes)  ETV
attr interpolationmode  none
attr source  packetSentToLower
attr title  "packets transmitted, vector(packetBytes)"
vector 31  ClientServerNetwork.router.ppp[0].ppp  rxPkOk:vector(packetBytes)  ETV
attr interpolationmode  none
attr source  rxPkOk
attr title  "packets received OK, vector(packetBytes)"
vector 35  ClientServerNetwork.router.ppp[0].ppp  passedUpPk:vector(packetBytes)  ETV
attr interpolationmode  none
attr source  packetSentToUpper
attr title  "packets passed to higher layer, vector(packetBytes)"
vector 80  ClientServerNetwork.router.ppp[5].queue  rcvdPk:vector(packetBytes)  ETV
attr interpolationmode  none
attr title  "received packets, vector(packetBytes)"
vector 82  ClientServerNetwork.router.ppp[5].queue  queueingTime:vector  ETV
attr interpolationmode  none
attr title  "queueing time, vector"
vector 89  ClientServerNetwork.router.ppp[5].ppp  rcvdPkFromHL:vector(packetBytes)  ETV
attr interpolationmode  none
attr source  packetReceivedFromUpper
attr title  "packets received from higher layer, vector(packetBytes)"
vector 85  ClientServerNetwork.router.ppp[5].ppp  txPk:vector(packetBytes)  ETV
attr interpolationmode  none
attr source  packetSentToLower
attr title  "packets transmitted, vector(packetBytes)"
vector 13  ClientServerNetwork.server.ppp[0].ppp  rxPkOk:vector(packetBytes)  ETV
attr interpolationmode  none
attr source  rxPkOk
attr title  "packets received OK, vector(packetBytes)"
vector 17  ClientServerNetwork.server.ppp[0].ppp  passedUpPk:vector(packetBytes)  ETV
attr interpolationmode  none
attr source  packetSentToUpper
attr title  "packets passed to higher layer, vector(packetBytes)"
vector 186  ClientServerNetwork.server.tcp  "rcvd seq"  ETV
vector 187  ClientServerNetwork.server.tcp  "rcvd ack"  ETV
vector 183  ClientServerNetwork.server.tcp  "advertised window"  ETV
vector 181  ClientServerNetwork.server.tcp  "send window"  ETV
vector 196  ClientServerNetwork.server.tcp  tcpRcvQueueBytes  ETV
vector 182  ClientServerNetwork.server.tcp  "receive window"  ETV
vector 185  ClientServerNetwork.server.tcp  "sent ack"  ETV
vector 7  ClientServerNetwork.server.ppp[0].queue  rcvdPk:vector(packetBytes)  ETV
attr interpolationmode  none
attr title  "received packets, vector(packetBytes)"
vector 9  ClientServerNetwork.server.ppp[0].queue  queueingTime:vector  ETV
attr interpolationmode  none
attr title  "queueing time, vector"
vector 16  ClientServerNetwork.server.ppp[0].ppp  rcvdPkFromHL:vector(packetBytes)  ETV
attr interpolationmode  none
attr source  packetReceivedFromUpper
attr title  "packets received from higher layer, vector(packetBytes)"
vector 12  ClientServerNetwork.server.ppp[0].ppp  txPk:vector(packetBytes)  ETV
attr interpolationmode  none
attr source  packetSentToLower
attr title  "packets transmitted, vector(packetBytes)"
vector 86  ClientServerNetwork.router.ppp[5].ppp  rxPkOk:vector(packetBytes)  ETV
attr interpolationmode  none
attr source  rxPkOk
attr title  "packets received OK, vector(packetBytes)"
vector 90  ClientServerNetwork.router.ppp[5].ppp  passedUpPk:vector(packetBytes)  ETV
attr interpolationmode  none
attr source  packetSentToUpper
attr title  "packets passed to higher layer, vector(packetBytes)"
vector 25  ClientServerNetwork.router.ppp[0].queue  rcvdPk:vector(packetBytes)  ETV
attr interpolationmode  none
attr title  "received packets, vector(packetBytes)"
vector 27  ClientServerNetwork.router.ppp[0].queue  queueingTime:vector  ETV
attr interpolationmode  none
attr title  "queueing time, vector"
vector 34  ClientServerNetwork.router.ppp[0].ppp  rcvdPkFromHL:vector(packetBytes)  ETV
attr interpolationmode  none
attr source  packetReceivedFromUpper
attr title  "packets received from higher layer, vector(packetBytes)"
vector 30  ClientServerNetwork.router.ppp[0].ppp  txPk:vector(packetBytes)  ETV
attr interpolationmode  none
attr source  packetSentToLower
attr title  "packets transmitted, vector(packetBytes)"
vector 104  ClientServerNetwork.client[0].ppp[0].ppp  rxPkOk:vector(packetBytes)  ETV
attr interpolationmode  none
attr source  rxPkOk
attr title  "packets received OK, vector(packetBytes)"
vector 108  ClientServerNetwork.client[0].ppp[0].ppp  passedUpPk:vector(packetBytes)  ETV
attr interpolationmode  none
attr source  packetSentToUpper
attr title  "packets passed to higher layer, vector(packetBytes)"
vector 330  ClientServerNetwork.client[0].tcp  "rcvd seq"  ETV
vector 331  ClientServerNetwork.client[0].tcp  "rcvd ack"  ETV
vector 325  ClientServerNetwork.client[0].tcp  "send window"  ETV
vector 328  ClientServerNetwork.client[0].tcp  "sent seq"  ETV
vector 332  ClientServerNetwork.client[0].tcp  "unacked bytes"  ETV
vector 388  ClientServerNetwork.client[1].tcp  tcpRcvQueueBytes  ETV
vector 375  ClientServerNetwork.client[1].tcp  "advertised window"  ETV
vector 374  ClientServerNetwork.client[1].tcp  "receive window"  ETV
vector 377  ClientServerNetwork.client[1].tcp  "sent ack"  ETV
vector 116  ClientServerNetwork.client[1].ppp[0].queue  rcvdPk:vector(packetBytes)  ETV
attr interpolationmode  none
attr title  "received packets, vector(packetBytes)"
vector 118  ClientServerNetwork.client[1].ppp[0].queue  queueingTime:vector  ETV
attr interpolationmode  none
attr title  "queueing time, vector"
vector 125  ClientServerNetwork.client[1].ppp[0].ppp  rcvdPkFromHL:vector(packetBytes)  ETV
attr interpolationmode  none
attr source  packetReceivedFromUpper
attr title  "packets received from higher layer, vector(packetBytes)"
vector 121  ClientServerNetwork.client[1].ppp[0].ppp  txPk:vector(packetBytes)  ETV
attr interpolationmode  none
attr source  packetSentToLower
attr title  "packets transmitted, vector(packetBytes)"
vector 188  ClientServerNetwork.server.tcp  "unacked bytes"  ETV
vector 412  ClientServerNetwork.client[4].tcp  tcpRcvQueueBytes  ETV
vector 399  ClientServerNetwork.client[4].tcp  "advertised window"  ETV
vector 398  ClientServerNetwork.client[4].tcp  "receive window"  ETV
vector 401  ClientServerNetwork.client[4].tcp  "sent ack"  ETV
vector 170  ClientServerNetwork.client[4].ppp[0].queue  rcvdPk:vector(packetBytes)  ETV
attr interpolationmode  none
attr title  "received packets, vector(packetBytes)"
vector 172  ClientServerNetwork.client[4].ppp[0].queue  queueingTime:vector  ETV
attr interpolationmode  none
attr title  "queueing time, vector"
vector 179  ClientServerNetwork.client[4].ppp[0].ppp  rcvdPkFromHL:vector(packetBytes)  ETV
attr interpolationmode  none
attr source  packetReceivedFromUpper
attr title  "packets received from higher layer, vector(packetBytes)"
vector 175  ClientServerNetwork.client[4].ppp[0].ppp  txPk:vector(packetBytes)  ETV
attr interpolationmode  none
attr source  packetSentToLower
attr title  "packets transmitted, vector(packetBytes)"
vector 42  ClientServerNetwork.router.ppp[1].ppp  rxPkOk:vector(packetBytes)  ETV
attr interpolationmode  none
attr source  rxPkOk
attr title  "packets received OK, vector(packetBytes)"
vector 46  ClientServerNetwork.router.ppp[1].ppp  passedUpPk:vector(packetBytes)  ETV
attr interpolationmode  none
attr source  packetSentToUpper
attr title  "packets passed to higher layer, vector(packetBytes)"
vector 354  ClientServerNetwork.server.tcp  "rcvd seq"  ETV
vector 355  ClientServerNetwork.server.tcp  "rcvd ack"  ETV
vector 351  ClientServerNetwork.server.tcp  "advertised window"  ETV
vector 349  ClientServerNetwork.server.tcp  "send window"  ETV
vector 364  ClientServerNetwork.server.tcp  tcpRcvQueueBytes  ETV
vector 350  ClientServerNetwork.server.tcp  "receive window"  ETV
vector 353  ClientServerNetwork.server.tcp  "sent ack"  ETV
vector 36  ClientServerNetwork.router.ppp[1].queue  rcvdPk:vector(packetBytes)  ETV
attr interpolationmode  none
attr title  "received packets, vector(packetBytes)"
vector 38  ClientServerNetwork.router.ppp[1].queue  queueingTime:vector  ETV
attr interpolationmode  none
attr title  "queueing time, vector"
vector 45  ClientServerNetwork.router.ppp[1].ppp  rcvdPkFromHL:vector(packetBytes)  ETV
attr interpolationmode  none
attr source  packetReceivedFromUpper
attr title  "packets received from higher layer, vector(packetBytes)"
vector 41  ClientServerNetwork.router.ppp[1].ppp  txPk:vector(packetBytes)  ETV
attr interpolationmode  none
attr source  packetSentToLower
attr title  "packets transmitted, vector(packetBytes)"
vector 75  ClientServerNetwork.router.ppp[4].ppp  rxPkOk:vector(packetBytes)  ETV
attr interpolationmode  none
attr source  rxPkOk
attr title  "packets received OK, vector(packetBytes)"
vector 79  ClientServerNetwork.router.ppp[4].ppp  passedUpPk:vector(packetBytes)  ETV
attr interpolationmode  none
attr source  packetSentToUpper
attr title  "packets passed to higher layer, vector(packetBytes)"
vector 426  ClientServerNetwork.server.tcp  "rcvd seq"  ETV
vector 427  ClientServerNetwork.server.tcp  "rcvd ack"  ETV
vector 423  ClientServerNetwork.server.tcp  "advertised window"  ETV
vector 421  ClientServerNetwork.server.tcp  "send window"  ETV
vector 436  ClientServerNetwork.server.tcp  tcpRcvQueueBytes  ETV
vector 422  ClientServerNetwork.server.tcp  "receive window"  ETV
vector 425  ClientServerNetwork.server.tcp  "sent ack"  ETV
vector 69  ClientServerNetwork.router.ppp[4].queue  rcvdPk:vector(packetBytes)  ETV
attr interpolationmode  none
attr title  "received packets, vector(packetBytes)"
vector 71  ClientServerNetwork.router.ppp[4].queue  queueingTime:vector  ETV
attr interpolationmode  none
attr title  "queueing time, vector"
vector 78  ClientServerNetwork.router.ppp[4].ppp  rcvdPkFromHL:vector(packetBytes)  ETV
attr interpolationmode  none
attr source  packetReceivedFromUpper
attr title  "packets received from higher layer, vector(packetBytes)"
vector 74  ClientServerNetwork.router.ppp[4].ppp  txPk:vector(packetBytes)  ETV
attr interpolationmode  none
attr source  packetSentToLower
attr title  "packets transmitted, vector(packetBytes)"
vector 189  ClientServerNetwork.server.tcp  "rcvd dupAcks"  ETV
vector 184  ClientServerNetwork.server.tcp  "sent seq"  ETV
vector 122  ClientServerNetwork.client[1].ppp[0].ppp  rxPkOk:vector(packetBytes)  ETV
attr interpolationmode  none
attr source  rxPkOk
attr title  "packets received OK, vector(packetBytes)"
vector 126  ClientServerNetwork.client[1].ppp[0].ppp  passedUpPk:vector(packetBytes)  ETV
attr interpolationmode  none
attr source  packetSentToUpper
attr title  "packets passed to higher layer, vector(packetBytes)"
vector 378  ClientServerNetwork.client[1].tcp  "rcvd seq"  ETV
vector 379  ClientServerNetwork.client[1].tcp  "rcvd ack"  ETV
vector 373  ClientServerNetwork.client[1].tcp  "send window"  ETV
vector 376  ClientServerNetwork.client[1].tcp  "sent seq"  ETV
vector 380  ClientServerNetwork.client[1].tcp  "unacked bytes"  ETV
vector 176  ClientServerNetwork.client[4].ppp[0].ppp  rxPkOk:vector(packetBytes)  ETV
attr interpolationmode  none
attr source  rxPkOk
attr title  "packets received OK, vector(packetBytes)"
vector 180  ClientServerNetwork.client[4].ppp[0].ppp  passedUpPk:vector(packetBytes)  ETV
attr interpolationmode  none
attr source  packetSentToUpper
attr title  "packets passed to higher layer, vector(packetBytes)"
vector 402  ClientServerNetwork.client[4].tcp  "rcvd seq"  ETV
vector 403  ClientServerNetwork.client[4].tcp  "rcvd ack"  ETV
vector 397  ClientServerNetwork.client[4].tcp  "send window"  ETV
vector 400  ClientServerNetwork.client[4].tcp  "sent seq"  ETV
vector 404  ClientServerNetwork.client[4].tcp  "unacked bytes"  ETV
vector 344  ClientServerNetwork.client[0].tcp  "measured RTT"  ETV
vector 345  ClientServerNetwork.client[0].tcp  "smoothed RTT"  ETV
vector 346  ClientServerNetwork.client[0].tcp  RTTVAR  ETV
vector 347  ClientServerNetwork.client[0].tcp  RTO  ETV
vector 342  ClientServerNetwork.client[0].tcp  cwnd  ETV
vector 333  ClientServerNetwork.client[0].tcp  "rcvd dupAcks"  ETV
vector 356  ClientServerNetwork.server.tcp  "unacked bytes"  ETV
vector 428  ClientServerNetwork.server.tcp  "unacked bytes"  ETV
vector 357  ClientServerNetwork.server.tcp  "rcvd dupAcks"  ETV
vector 352  ClientServerNetwork.server.tcp  "sent seq"  ETV
vector 429  ClientServerNetwork.server.tcp  "rcvd dupAcks"  ETV
vector 424  ClientServerNetwork.server.tcp  "sent seq"  ETV
vector 392  ClientServerNetwork.client[1].tcp  "measured RTT"  ETV
vector 393  ClientServerNetwork.client[1].tcp  "smoothed RTT"  ETV
vector 394  ClientServerNetwork.client[1].tcp  RTTVAR  ETV
vector 395  ClientServerNetwork.client[1].tcp  RTO  ETV
vector 390  ClientServerNetwork.client[1].tcp  cwnd  ETV
vector 381  ClientServerNetwork.client[1].tcp  "rcvd dupAcks"  ETV
vector 416  ClientServerNetwork.client[4].tcp  "measured RTT"  ETV
vector 417  ClientServerNetwork.client[4].tcp  "smoothed RTT"  ETV
vector 418  ClientServerNetwork.client[4].tcp  RTTVAR  ETV
vector 419  ClientServerNetwork.client[4].tcp  RTO  ETV
vector 414  ClientServerNetwork.client[4].tcp  cwnd  ETV
vector 405  ClientServerNetwork.client[4].tcp  "rcvd dupAcks"  ETV
vector 484  ClientServerNetwork.client[0].tcp  tcpRcvQueueBytes  ETV
vector 471  ClientServerNetwork.client[0].tcp  "advertised window"  ETV
vector 470  ClientServerNetwork.client[0].tcp  "receive window"  ETV
vector 473  ClientServerNetwork.client[0].tcp  "sent ack"  ETV
vector 96  ClientServerNetwork.client[0].lo0.lo  rcvdPkFromHL:vector(packetBytes)  ETV
attr interpolationmode  none
attr source  packetReceivedFromUpper
attr title  "packets received from higher layer, vector(packetBytes)"
vector 97  ClientServerNetwork.client[0].lo0.lo  passedUpPk:vector(packetBytes)  ETV
attr interpolationmode  none
attr source  packetSentToUpper
attr title  "packets passed to higher layer, vector(packetBytes)"
vector 210  ClientServerNetwork.client[0].tcp  "rcvd seq"  ETV
vector 211  ClientServerNetwork.client[0].tcp  "rcvd ack"  ETV
vector 207  ClientServerNetwork.client[0].tcp  "advertised window"  ETV
vector 205  ClientServerNetwork.client[0].tcp  "send window"  ETV
vector 220  ClientServerNetwork.client[0].tcp  tcpRcvQueueBytes  ETV
vector 206  ClientServerNetwork.client[0].tcp  "receive window"  ETV
vector 209  ClientServerNetwork.client[0].tcp  "sent ack"  ETV
vector 474  ClientServerNetwork.client[0].tcp  "rcvd seq"  ETV
vector 475  ClientServerNetwork.client[0].tcp  "rcvd ack"  ETV
vector 469  ClientServerNetwork.client[0].tcp  "send window"  ETV
vector 472  ClientServerNetwork.client[0].tcp  "sent seq"  ETV
vector 476  ClientServerNetwork.client[0].tcp  "unacked bytes"  ETV
vector 212  ClientServerNetwork.client[0].tcp  "unacked bytes"  ETV
vector 222  ClientServerNetwork.client[0].tcp  cwnd  ETV
vector 213  ClientServerNetwork.client[0].tcp  "rcvd dupAcks"  ETV
vector 208  ClientServerNetwork.client[0].tcp  "sent seq"  ETV
vector 488  ClientServerNetwork.client[0].tcp  "measured RTT"  ETV
vector 489  ClientServerNetwork.client[0].tcp  "smoothed RTT"  ETV
vector 490  ClientServerNetwork.client[0].tcp  RTTVAR  ETV
vector 491  ClientServerNetwork.client[0].tcp  RTO  ETV
vector 486  ClientServerNetwork.client[0].tcp  cwnd  ETV
vector 477  ClientServerNetwork.client[0].tcp  "rcvd dupAcks"  ETV
vector 224  ClientServerNetwork.client[0].tcp  "measured RTT"  ETV
vector 225  ClientServerNetwork.client[0].tcp  "smoothed RTT"  ETV
vector 226  ClientServerNetwork.client[0].tcp  RTTVAR  ETV
vector 227  ClientServerNetwork.client[0].tcp  RTO  ETV
vector 532  ClientServerNetwork.client[2].tcp  tcpRcvQueueBytes  ETV
vector 519  ClientServerNetwork.client[2].tcp  "advertised window"  ETV
vector 518  ClientServerNetwork.client[2].tcp  "receive window"  ETV
vector 521  ClientServerNetwork.client[2].tcp  "sent ack"  ETV
vector 134  ClientServerNetwork.client[2].ppp[0].queue  rcvdPk:vector(packetBytes)  ETV
attr interpolationmode  none
attr title  "received packets, vector(packetBytes)"
vector 136  ClientServerNetwork.client[2].ppp[0].queue  queueingTime:vector  ETV
attr interpolationmode  none
attr title  "queueing time, vector"
vector 143  ClientServerNetwork.client[2].ppp[0].ppp  rcvdPkFromHL:vector(packetBytes)  ETV
attr interpolationmode  none
attr source  packetReceivedFromUpper
attr title  "packets received from higher layer, vector(packetBytes)"
vector 139  ClientServerNetwork.client[2].ppp[0].ppp  txPk:vector(packetBytes)  ETV
attr interpolationmode  none
attr source  packetSentToLower
attr title  "packets transmitted, vector(packetBytes)"
vector 200  ClientServerNetwork.server.tcp  "measured RTT"  ETV
vector 201  ClientServerNetwork.server.tcp  "smoothed RTT"  ETV
vector 202  ClientServerNetwork.server.tcp  RTTVAR  ETV
vector 203  ClientServerNetwork.server.tcp  RTO  ETV
vector 198  ClientServerNetwork.server.tcp  cwnd  ETV
vector 53  ClientServerNetwork.router.ppp[2].ppp  rxPkOk:vector(packetBytes)  ETV
attr interpolationmode  none
attr source  rxPkOk
attr title  "packets received OK, vector(packetBytes)"
vector 57  ClientServerNetwork.router.ppp[2].ppp  passedUpPk:vector(packetBytes)  ETV
attr interpolationmode  none
attr source  packetSentToUpper
attr title  "packets passed to higher layer, vector(packetBytes)"
vector 450  ClientServerNetwork.server.tcp  "rcvd seq"  ETV
vector 451  ClientServerNetwork.server.tcp  "rcvd ack"  ETV
vector 447  ClientServerNetwork.server.tcp  "advertised window"  ETV
vector 445  ClientServerNetwork.server.tcp  "send window"  ETV
vector 460  ClientServerNetwork.server.tcp  tcpRcvQueueBytes  ETV
vector 446  ClientServerNetwork.server.tcp  "receive window"  ETV
vector 449  ClientServerNetwork.server.tcp  "sent ack"  ETV
vector 47  ClientServerNetwork.router.ppp[2].queue  rcvdPk:vector(packetBytes)  ETV
attr interpolationmode  none
attr title  "received packets, vector(packetBytes)"
vector 49  ClientServerNetwork.router.ppp[2].queue  queueingTime:vector  ETV
attr interpolationmode  none
attr title  "queueing time, vector"
vector 56  ClientServerNetwork.router.ppp[2].ppp  rcvdPkFromHL:vector(packetBytes)  ETV
attr interpolationmode  none
attr source  packetReceivedFromUpper
attr title  "packets received from higher layer, vector(packetBytes)"
vector 52  ClientServerNetwork.router.ppp[2].ppp  txPk:vector(packetBytes)  ETV
attr interpolationmode  none
attr source  packetSentToLower
attr title  "packets transmitted, vector(packetBytes)"
vector 140  ClientServerNetwork.client[2].ppp[0].ppp  rxPkOk:vector(packetBytes)  ETV
attr interpolationmode  none
attr source  rxPkOk
attr title  "packets received OK, vector(packetBytes)"
vector 144  ClientServerNetwork.client[2].ppp[0].ppp  passedUpPk:vector(packetBytes)  ETV
attr interpolationmode  none
attr source  packetSentToUpper
attr title  "packets passed to higher layer, vector(packetBytes)"
vector 522  ClientServerNetwork.client[2].tcp  "rcvd seq"  ETV
vector 523  ClientServerNetwork.client[2].tcp  "rcvd ack"  ETV
vector 517  ClientServerNetwork.client[2].tcp  "send window"  ETV
vector 520  ClientServerNetwork.client[2].tcp  "sent seq"  ETV
vector 524  ClientServerNetwork.client[2].tcp  "unacked bytes"  ETV
vector 580  ClientServerNetwork.client[1].tcp  tcpRcvQueueBytes  ETV
vector 567  ClientServerNetwork.client[1].tcp  "advertised window"  ETV
vector 566  ClientServerNetwork.client[1].tcp  "receive window"  ETV
vector 569  ClientServerNetwork.client[1].tcp  "sent ack"  ETV
vector 604  ClientServerNetwork.client[1].tcp  tcpRcvQueueBytes  ETV
vector 591  ClientServerNetwork.client[1].tcp  "advertised window"  ETV
vector 590  ClientServerNetwork.client[1].tcp  "receive window"  ETV
vector 593  ClientServerNetwork.client[1].tcp  "sent ack"  ETV
vector 628  ClientServerNetwork.client[1].tcp  tcpRcvQueueBytes  ETV
vector 615  ClientServerNetwork.client[1].tcp  "advertised window"  ETV
vector 614  ClientServerNetwork.client[1].tcp  "receive window"  ETV
vector 617  ClientServerNetwork.client[1].tcp  "sent ack"  ETV
vector 114  ClientServerNetwork.client[1].lo0.lo  rcvdPkFromHL:vector(packetBytes)  ETV
attr interpolationmode  none
attr source  packetReceivedFromUpper
attr title  "packets received from higher layer, vector(packetBytes)"
vector 115  ClientServerNetwork.client[1].lo0.lo  passedUpPk:vector(packetBytes)  ETV
attr interpolationmode  none
attr source  packetSentToUpper
attr title  "packets passed to higher layer, vector(packetBytes)"
vector 234  ClientServerNetwork.client[1].tcp  "rcvd seq"  ETV
vector 235  ClientServerNetwork.client[1].tcp  "rcvd ack"  ETV
vector 231  ClientServerNetwork.client[1].tcp  "advertised window"  ETV
vector 229  ClientServerNetwork.client[1].tcp  "send window"  ETV
vector 244  ClientServerNetwork.client[1].tcp  tcpRcvQueueBytes  ETV
vector 230  ClientServerNetwork.client[1].tcp  "receive window"  ETV
vector 233  ClientServerNetwork.client[1].tcp  "sent ack"  ETV
vector 570  ClientServerNetwork.client[1].tcp  "rcvd seq"  ETV
vector 571  ClientServerNetwork.client[1].tcp  "rcvd ack"  ETV
vector 565  ClientServerNetwork.client[1].tcp  "send window"  ETV
vector 568  ClientServerNetwork.client[1].tcp  "sent seq"  ETV
vector 572  ClientServerNetwork.client[1].tcp  "unacked bytes"  ETV
vector 236  ClientServerNetwork.client[1].tcp  "unacked bytes"  ETV
vector 246  ClientServerNetwork.client[1].tcp  cwnd  ETV
vector 237  ClientServerNetwork.client[1].tcp  "rcvd dupAcks"  ETV
vector 232  ClientServerNetwork.client[1].tcp  "sent seq"  ETV
vector 584  ClientServerNetwork.client[1].tcp  "measured RTT"  ETV
vector 585  ClientServerNetwork.client[1].tcp  "smoothed RTT"  ETV
vector 586  ClientServerNetwork.client[1].tcp  RTTVAR  ETV
vector 587  ClientServerNetwork.client[1].tcp  RTO  ETV
vector 582  ClientServerNetwork.client[1].tcp  cwnd  ETV
vector 573  ClientServerNetwork.client[1].tcp  "rcvd dupAcks"  ETV
vector 248  ClientServerNetwork.client[1].tcp  "measured RTT"  ETV
vector 249  ClientServerNetwork.client[1].tcp  "smoothed RTT"  ETV
vector 250  ClientServerNetwork.client[1].tcp  RTTVAR  ETV
vector 251  ClientServerNetwork.client[1].tcp  RTO  ETV
vector 676  ClientServerNetwork.client[4].tcp  tcpRcvQueueBytes  ETV
vector 663  ClientServerNetwork.client[4].tcp  "advertised window"  ETV
vector 662  ClientServerNetwork.client[4].tcp  "receive window"  ETV
vector 665  ClientServerNetwork.client[4].tcp  "sent ack"  ETV
vector 700  ClientServerNetwork.client[4].tcp  tcpRcvQueueBytes  ETV
vector 687  ClientServerNetwork.client[4].tcp  "advertised window"  ETV
vector 686  ClientServerNetwork.client[4].tcp  "receive window"  ETV
vector 689  ClientServerNetwork.client[4].tcp  "sent ack"  ETV
vector 724  ClientServerNetwork.client[4].tcp  tcpRcvQueueBytes  ETV
vector 711  ClientServerNetwork.client[4].tcp  "advertised window"  ETV
vector 710  ClientServerNetwork.client[4].tcp  "receive window"  ETV
vector 713  ClientServerNetwork.client[4].tcp  "sent ack"  ETV
vector 168  ClientServerNetwork.client[4].lo0.lo  rcvdPkFromHL:vector(packetBytes)  ETV
attr interpolationmode  none
attr source  packetReceivedFromUpper
attr title  "packets received from higher layer, vector(packetBytes)"
vector 169  ClientServerNetwork.client[4].lo0.lo  passedUpPk:vector(packetBytes)  ETV
attr interpolationmode  none
attr source  packetSentToUpper
attr title  "packets passed to higher layer, vector(packetBytes)"
vector 306  ClientServerNetwork.client[4].tcp  "rcvd seq"  ETV
vector 307  ClientServerNetwork.client[4].tcp  "rcvd ack"  ETV
vector 303  ClientServerNetwork.client[4].tcp  "advertised window"  ETV
vector 301  ClientServerNetwork.client[4].tcp  "send window"  ETV
vector 316  ClientServerNetwork.client[4].tcp  tcpRcvQueueBytes  ETV
vector 302  ClientServerNetwork.client[4].tcp  "receive window"  ETV
vector 305  ClientServerNetwork.client[4].tcp  "sent ack"  ETV
vector 690  ClientServerNetwork.client[4].tcp  "rcvd seq"  ETV
vector 691  ClientServerNetwork.client[4].tcp  "rcvd ack"  ETV
vector 685  ClientServerNetwork.client[4].tcp  "send window"  ETV
vector 688  ClientServerNetwork.client[4].tcp  "sent seq"  ETV
vector 692  ClientServerNetwork.client[4].tcp  "unacked bytes"  ETV
vector 308  ClientServerNetwork.client[4].tcp  "unacked bytes"  ETV
vector 318  ClientServerNetwork.client[4].tcp  cwnd  ETV
vector 309  ClientServerNetwork.client[4].tcp  "rcvd dupAcks"  ETV
vector 304  ClientServerNetwork.client[4].tcp  "sent seq"  ETV
vector 704  ClientServerNetwork.client[4].tcp  "measured RTT"  ETV
vector 705  ClientServerNetwork.client[4].tcp  "smoothed RTT"  ETV
vector 706  ClientServerNetwork.client[4].tcp  RTTVAR  ETV
vector 707  ClientServerNetwork.client[4].tcp  RTO  ETV
vector 702  ClientServerNetwork.client[4].tcp  cwnd  ETV
vector 693  ClientServerNetwork.client[4].tcp  "rcvd dupAcks"  ETV
vector 320  ClientServerNetwork.client[4].tcp  "measured RTT"  ETV
vector 321  ClientServerNetwork.client[4].tcp  "smoothed RTT"  ETV
vector 322  ClientServerNetwork.client[4].tcp  RTTVAR  ETV
vector 323  ClientServerNetwork.client[4].tcp  RTO  ETV
vector 452  ClientServerNetwork.server.tcp  "unacked bytes"  ETV
vector 368  ClientServerNetwork.server.tcp  "measured RTT"  ETV
vector 369  ClientServerNetwork.server.tcp  "smoothed RTT"  ETV
vector 370  ClientServerNetwork.server.tcp  RTTVAR  ETV
vector 371  ClientServerNetwork.server.tcp  RTO  ETV
vector 366  ClientServerNetwork.server.tcp  cwnd  ETV
vector 440  ClientServerNetwork.server.tcp  "measured RTT"  ETV