file 5460522 1393530931                                         
version 2
run General-0-20140227-13:55:13-1428
attr configname General
attr datetime 20140227-13:55:13
attr experiment General
attr inifile omnetpp.ini
attr iterationvars ""
attr iterationvars2 $repetition=0
attr measurement ""
attr network ClientServerNetwork
attr processid 1428
attr repetition 0
attr replication #0
attr resultdir results
attr runnumber 0
attr seedset 0

vector 10  ClientServerNetwork.server.ppp[0].queue  queueLength:vector  ETV
attr interpolationmode  sample-hold
attr title  "queue length, vector"
vector 11  ClientServerNetwork.server.ppp[0].ppp  txState:vector  ETV
attr interpolationmode  sample-hold
attr title  "tx state, vector"
vector 28  ClientServerNetwork.router.ppp[0].queue  queueLength:vector  ETV
attr interpolationmode  sample-hold
attr title  "queue length, vector"
vector 29  ClientServerNetwork.router.ppp[0].ppp  txState:vector  ETV
attr interpolationmode  sample-hold
attr title  "tx state, vector"
vector 39  ClientServerNetwork.router.ppp[1].queue  queueLength:vector  ETV
attr interpolationmode  sample-hold
attr title  "queue length, vector"
vector 40  ClientServerNetwork.router.ppp[1].ppp  txState:vector  ETV
attr interpolationmode  sample-hold
attr title  "tx state, vector"
vector 50  ClientServerNetwork.router.ppp[2].queue  queueLength:vector  ETV
attr interpolationmode  sample-hold
attr title  "queue length, vector"
vector 51  ClientServerNetwork.router.ppp[2].ppp  txState:vector  ETV
attr interpolationmode  sample-hold
attr title  "tx state, vector"
vector 61  ClientServerNetwork.router.ppp[3].queue  queueLength:vector  ETV
attr interpolationmode  sample-hold
attr title  "queue length, vector"
vector 62  ClientServerNetwork.router.ppp[3].ppp  txState:vector  ETV
attr interpolationmode  sample-hold
attr title  "tx state, vector"
vector 72  ClientServerNetwork.router.ppp[4].queue  queueLength:vector  ETV
attr interpolationmode  sample-hold
attr title  "queue length, vector"
vector 73  ClientServerNetwork.router.ppp[4].ppp  txState:vector  ETV
attr interpolationmode  sample-hold
attr title  "tx state, vector"
vector 83  ClientServerNetwork.router.ppp[5].queue  queueLength:vector  ETV
attr interpolationmode  sample-hold
attr title  "queue length, vector"
vector 84  ClientServerNetwork.router.ppp[5].ppp  txState:vector  ETV
attr interpolationmode  sample-hold
attr title  "tx state, vector"
vector 94  ClientServerNetwork.router.ppp[6].queue  queueLength:vector  ETV
attr interpolationmode  sample-hold
attr title  "queue length, vector"
vector 95  ClientServerNetwork.router.ppp[6].ppp  txState:vector  ETV
attr interpolationmode  sample-hold
attr title  "tx state, vector"
vector 105  ClientServerNetwork.router.ppp[7].queue  queueLength:vector  ETV
attr interpolationmode  sample-hold
attr title  "queue length, vector"
vector 106  ClientServerNetwork.router.ppp[7].ppp  txState:vector  ETV
attr interpolationmode  sample-hold
attr title  "tx state, vector"
vector 116  ClientServerNetwork.router.ppp[8].queue  queueLength:vector  ETV
attr interpolationmode  sample-hold
attr title  "queue length, vector"
vector 117  ClientServerNetwork.router.ppp[8].ppp  txState:vector  ETV
attr interpolationmode  sample-hold
attr title  "tx state, vector"
vector 127  ClientServerNetwork.router.ppp[9].queue  queueLength:vector  ETV
attr interpolationmode  sample-hold
attr title  "queue length, vector"
vector 128  ClientServerNetwork.router.ppp[9].ppp  txState:vector  ETV
attr interpolationmode  sample-hold
attr title  "tx state, vector"
vector 138  ClientServerNetwork.router.ppp[10].queue  queueLength:vector  ETV
attr interpolationmode  sample-hold
attr title  "queue length, vector"
vector 139  ClientServerNetwork.router.ppp[10].ppp  txState:vector  ETV
attr interpolationmode  sample-hold
attr title  "tx state, vector"
vector 149  ClientServerNetwork.router.ppp[11].queue  queueLength:vector  ETV
attr interpolationmode  sample-hold
attr title  "queue length, vector"
vector 150  ClientServerNetwork.router.ppp[11].ppp  txState:vector  ETV
attr interpolationmode  sample-hold
attr title  "tx state, vector"
vector 160  ClientServerNetwork.router.ppp[12].queue  queueLength:vector  ETV
attr interpolationmode  sample-hold
attr title  "queue length, vector"
vector 161  ClientServerNetwork.router.ppp[12].ppp  txState:vector  ETV
attr interpolationmode  sample-hold
attr title  "tx state, vector"
vector 171  ClientServerNetwork.router.ppp[13].queue  queueLength:vector  ETV
attr interpolationmode  sample-hold
attr title  "queue length, vector"
vector 172  ClientServerNetwork.router.ppp[13].ppp  txState:vector  ETV
attr interpolationmode  sample-hold
attr title  "tx state, vector"
vector 182  ClientServerNetwork.router.ppp[14].queue  queueLength:vector  ETV
attr interpolationmode  sample-hold
attr title  "queue length, vector"
vector 183  ClientServerNetwork.router.ppp[14].ppp  txState:vector  ETV
attr interpolationmode  sample-hold
attr title  "tx state, vector"
vector 193  ClientServerNetwork.router.ppp[15].queue  queueLength:vector  ETV
attr interpolationmode  sample-hold
attr title  "queue length, vector"
vector 194  ClientServerNetwork.router.ppp[15].ppp  txState:vector  ETV
attr interpolationmode  sample-hold
attr title  "tx state, vector"
vector 204  ClientServerNetwork.router.ppp[16].queue  queueLength:vector  ETV
attr interpolationmode  sample-hold
attr title  "queue length, vector"
vector 205  ClientServerNetwork.router.ppp[16].ppp  txState:vector  ETV
attr interpolationmode  sample-hold
attr title  "tx state, vector"
vector 215  ClientServerNetwork.router.ppp[17].queue  queueLength:vector  ETV
attr interpolationmode  sample-hold
attr title  "queue length, vector"
vector 216  ClientServerNetwork.router.ppp[17].ppp  txState:vector  ETV
attr interpolationmode  sample-hold
attr title  "tx state, vector"
vector 226  ClientServerNetwork.router.ppp[18].queue  queueLength:vector  ETV
attr interpolationmode  sample-hold
attr title  "queue length, vector"
vector 227  ClientServerNetwork.router.ppp[18].ppp  txState:vector  ETV
attr interpolationmode  sample-hold
attr title  "tx state, vector"
vector 237  ClientServerNetwork.router.ppp[19].queue  queueLength:vector  ETV
attr interpolationmode  sample-hold
attr title  "queue length, vector"
vector 238  ClientServerNetwork.router.ppp[19].ppp  txState:vector  ETV
attr interpolationmode  sample-hold
attr title  "tx state, vector"
vector 248  ClientServerNetwork.router.ppp[20].queue  queueLength:vector  ETV
attr interpolationmode  sample-hold
attr title  "queue length, vector"
vector 249  ClientServerNetwork.router.ppp[20].ppp  txState:vector  ETV
attr interpolationmode  sample-hold
attr title  "tx state, vector"
vector 259  ClientServerNetwork.router.ppp[21].queue  queueLength:vector  ETV
attr interpolationmode  sample-hold
attr title  "queue length, vector"
vector 260  ClientServerNetwork.router.ppp[21].ppp  txState:vector  ETV
attr interpolationmode  sample-hold
attr title  "tx state, vector"
vector 270  ClientServerNetwork.router.ppp[22].queue  queueLength:vector  ETV
attr interpolationmode  sample-hold
attr title  "queue length, vector"
vector 271  ClientServerNetwork.router.ppp[22].ppp  txState:vector  ETV
attr interpolationmode  sample-hold
attr title  "tx state, vector"
vector 281  ClientServerNetwork.router.ppp[23].queue  queueLength:vector  ETV
attr interpolationmode  sample-hold
attr title  "queue length, vector"
vector 282  ClientServerNetwork.router.ppp[23].ppp  txState:vector  ETV
attr interpolationmode  sample-hold
attr title  "tx state, vector"
vector 292  ClientServerNetwork.router.ppp[24].queue  queueLength:vector  ETV
attr interpolationmode  sample-hold
attr title  "queue length, vector"
vector 293  ClientServerNetwork.router.ppp[24].ppp  txState:vector  ETV
attr interpolationmode  sample-hold
attr title  "tx state, vector"
vector 303  ClientServerNetwork.router.ppp[25].queue  queueLength:vector  ETV
attr interpolationmode  sample-hold
attr title  "queue length, vector"
vector 304  ClientServerNetwork.router.ppp[25].ppp  txState:vector  ETV
attr interpolationmode  sample-hold
attr title  "tx state, vector"
vector 321  ClientServerNetwork.client[0].ppp[0].queue  queueLength:vector  ETV
attr interpolationmode  sample-hold
attr title  "queue length, vector"
vector 322  ClientServerNetwork.client[0].ppp[0].ppp  txState:vector  ETV
attr interpolationmode  sample-hold
attr title  "tx state, vector"
vector 339  ClientServerNetwork.client[1].ppp[0].queue  queueLength:vector  ETV
attr interpolationmode  sample-hold
attr title  "queue length, vector"
vector 340  ClientServerNetwork.client[1].ppp[0].ppp  txState:vector  ETV
attr interpolationmode  sample-hold
attr title  "tx state, vector"
vector 357  ClientServerNetwork.client[2].ppp[0].queue  queueLength:vector  ETV
attr interpolationmode  sample-hold
attr title  "queue length, vector"
vector 358  ClientServerNetwork.client[2].ppp[0].ppp  txState:vector  ETV
attr interpolationmode  sample-hold
attr title  "tx state, vector"
vector 375  ClientServerNetwork.client[3].ppp[0].queue  queueLength:vector  ETV
attr interpolationmode  sample-hold
attr title  "queue length, vector"
vector 376  ClientServerNetwork.client[3].ppp[0].ppp  txState:vector  ETV
attr interpolationmode  sample-hold
attr title  "tx state, vector"
vector 393  ClientServerNetwork.client[4].ppp[0].queue  queueLength:vector  ETV
attr interpolationmode  sample-hold
attr title  "queue length, vector"
vector 394  ClientServerNetwork.client[4].ppp[0].ppp  txState:vector  ETV
attr interpolationmode  sample-hold
attr title  "tx state, vector"
vector 411  ClientServerNetwork.client[5].ppp[0].queue  queueLength:vector  ETV
attr interpolationmode  sample-hold
attr title  "queue length, vector"
vector 412  ClientServerNetwork.client[5].ppp[0].ppp  txState:vector  ETV
attr interpolationmode  sample-hold
attr title  "tx state, vector"
vector 429  ClientServerNetwork.client[6].ppp[0].queue  queueLength:vector  ETV
attr interpolationmode  sample-hold
attr title  "queue length, vector"
vector 430  ClientServerNetwork.client[6].ppp[0].ppp  txState:vector  ETV
attr interpolationmode  sample-hold
attr title  "tx state, vector"
vector 447  ClientServerNetwork.client[7].ppp[0].queue  queueLength:vector  ETV
attr interpolationmode  sample-hold
attr title  "queue length, vector"
vector 448  ClientServerNetwork.client[7].ppp[0].ppp  txState:vector  ETV
attr interpolationmode  sample-hold
attr title  "tx state, vector"
vector 465  ClientServerNetwork.client[8].ppp[0].queue  queueLength:vector  ETV
attr interpolationmode  sample-hold
attr title  "queue length, vector"
vector 466  ClientServerNetwork.client[8].ppp[0].ppp  txState:vector  ETV
attr interpolationmode  sample-hold
attr title  "tx state, vector"
vector 483  ClientServerNetwork.client[9].ppp[0].queue  queueLength:vector  ETV
attr interpolationmode  sample-hold
attr title  "queue length, vector"
vector 484  ClientServerNetwork.client[9].ppp[0].ppp  txState:vector  ETV
attr interpolationmode  sample-hold
attr title  "tx state, vector"
vector 501  ClientServerNetwork.client[10].ppp[0].queue  queueLength:vector  ETV
attr interpolationmode  sample-hold
attr title  "queue length, vector"
vector 502  ClientServerNetwork.client[10].ppp[0].ppp  txState:vector  ETV
attr interpolationmode  sample-hold
attr title  "tx state, vector"
vector 519  ClientServerNetwork.client[11].ppp[0].queue  queueLength:vector  ETV
attr interpolationmode  sample-hold
attr title  "queue length, vector"
vector 520  ClientServerNetwork.client[11].ppp[0].ppp  txState:vector  ETV
attr interpolationmode  sample-hold
attr title  "tx state, vector"
vector 537  ClientServerNetwork.client[12].ppp[0].queue  queueLength:vector  ETV
attr interpolationmode  sample-hold
attr title  "queue length, vector"
vector 538  ClientServerNetwork.client[12].ppp[0].ppp  txState:vector  ETV
attr interpolationmode  sample-hold
attr title  "tx state, vector"
vector 555  ClientServerNetwork.client[13].ppp[0].queue  queueLength:vector  ETV
attr interpolationmode  sample-hold
attr title  "queue length, vector"
vector 556  ClientServerNetwork.client[13].ppp[0].ppp  txState:vector  ETV
attr interpolationmode  sample-hold
attr title  "tx state, vector"
vector 573  ClientServerNetwork.client[14].ppp[0].queue  queueLength:vector  ETV
attr interpolationmode  sample-hold
attr title  "queue length, vector"
vector 574  ClientServerNetwork.client[14].ppp[0].ppp  txState:vector  ETV
attr interpolationmode  sample-hold
attr title  "tx state, vector"
vector 591  ClientServerNetwork.client[15].ppp[0].queue  queueLength:vector  ETV
attr interpolationmode  sample-hold
attr title  "queue length, vector"
vector 592  ClientServerNetwork.client[15].ppp[0].ppp  txState:vector  ETV
attr interpolationmode  sample-hold
attr title  "tx state, vector"
vector 609  ClientServerNetwork.client[16].ppp[0].queue  queueLength:vector  ETV
attr interpolationmode  sample-hold
attr title  "queue length, vector"
vector 610  ClientServerNetwork.client[16].ppp[0].ppp  txState:vector  ETV
attr interpolationmode  sample-hold
attr title  "tx state, vector"
vector 627  ClientServerNetwork.client[17].ppp[0].queue  queueLength:vector  ETV
attr interpolationmode  sample-hold
attr title  "queue length, vector"
vector 628  ClientServerNetwork.client[17].ppp[0].ppp  txState:vector  ETV
attr interpolationmode  sample-hold
attr title  "tx state, vector"
vector 645  ClientServerNetwork.client[18].ppp[0].queue  queueLength:vector  ETV
attr interpolationmode  sample-hold
attr title  "queue length, vector"
vector 646  ClientServerNetwork.client[18].ppp[0].ppp  txState:vector  ETV
attr interpolationmode  sample-hold
attr title  "tx state, vector"
vector 663  ClientServerNetwork.client[19].ppp[0].queue  queueLength:vector  ETV
attr interpolationmode  sample-hold
attr title  "queue length, vector"
vector 664  ClientServerNetwork.client[19].ppp[0].ppp  txState:vector  ETV
attr interpolationmode  sample-hold
attr title  "tx state, vector"
vector 681  ClientServerNetwork.client[20].ppp[0].queue  queueLength:vector  ETV
attr interpolationmode  sample-hold
attr title  "queue length, vector"
vector 682  ClientServerNetwork.client[20].ppp[0].ppp  txState:vector  ETV
attr interpolationmode  sample-hold
attr title  "tx state, vector"
vector 699  ClientServerNetwork.client[21].ppp[0].queue  queueLength:vector  ETV
attr interpolationmode  sample-hold
attr title  "queue length, vector"
vector 700  ClientServerNetwork.client[21].ppp[0].ppp  txState:vector  ETV
attr interpolationmode  sample-hold
attr title  "tx state, vector"
vector 717  ClientServerNetwork.client[22].ppp[0].queue  queueLength:vector  ETV
attr interpolationmode  sample-hold
attr title  "queue length, vector"
vector 718  ClientServerNetwork.client[22].ppp[0].ppp  txState:vector  ETV
attr interpolationmode  sample-hold
attr title  "tx state, vector"
vector 735  ClientServerNetwork.client[23].ppp[0].queue  queueLength:vector  ETV
attr interpolationmode  sample-hold
attr title  "queue length, vector"
vector 736  ClientServerNetwork.client[23].ppp[0].ppp  txState:vector  ETV
attr interpolationmode  sample-hold
attr title  "tx state, vector"
vector 753  ClientServerNetwork.client[24].ppp[0].queue  queueLength:vector  ETV
attr interpolationmode  sample-hold
attr title  "queue length, vector"
vector 754  ClientServerNetwork.client[24].ppp[0].ppp  txState:vector  ETV
attr interpolationmode  sample-hold
attr title  "tx state, vector"
vector 1400  ClientServerNetwork.client[15].tcp  tcpRcvQueueBytes  ETV
vector 1387  ClientServerNetwork.client[15].tcp  "advertised window"  ETV
vector 1386  ClientServerNetwork.client[15].tcp  "receive window"  ETV
vector 1389  ClientServerNetwork.client[15].tcp  "sent ack"  ETV
vector 588  ClientServerNetwork.client[15].ppp[0].queue  rcvdPk:vector(packetBytes)  ETV
attr interpolationmode  none
attr title  "received packets, vector(packetBytes)"
vector 590  ClientServerNetwork.client[15].ppp[0].queue  queueingTime:vector  ETV
attr interpolationmode  none
attr title  "queueing time, vector"
vector 597  ClientServerNetwork.client[15].ppp[0].ppp  rcvdPkFromHL:vector(packetBytes)  ETV
attr interpolationmode  none
attr source  packetReceivedFromUpper
attr title  "packets received from higher layer, vector(packetBytes)"
vector 593  ClientServerNetwork.client[15].ppp[0].ppp  txPk:vector(packetBytes)  ETV
attr interpolationmode  none
attr source  packetSentToLower
attr title  "packets transmitted, vector(packetBytes)"
vector 196  ClientServerNetwork.router.ppp[15].ppp  rxPkOk:vector(packetBytes)  ETV
attr interpolationmode  none
attr source  rxPkOk
attr title  "packets received OK, vector(packetBytes)"
vector 200  ClientServerNetwork.router.ppp[15].ppp  passedUpPk:vector(packetBytes)  ETV
attr interpolationmode  none
attr source  packetSentToUpper
attr title  "packets passed to higher layer, vector(packetBytes)"
vector 300  ClientServerNetwork.router.ppp[25].queue  rcvdPk:vector(packetBytes)  ETV
attr interpolationmode  none
attr title  "received packets, vector(packetBytes)"
vector 302  ClientServerNetwork.router.ppp[25].queue  queueingTime:vector  ETV
attr interpolationmode  none
attr title  "queueing time, vector"
vector 309  ClientServerNetwork.router.ppp[25].ppp  rcvdPkFromHL:vector(packetBytes)  ETV
attr interpolationmode  none
attr source  packetReceivedFromUpper
attr title  "packets received from higher layer, vector(packetBytes)"
vector 305  ClientServerNetwork.router.ppp[25].ppp  txPk:vector(packetBytes)  ETV
attr interpolationmode  none
attr source  packetSentToLower
attr title  "packets transmitted, vector(packetBytes)"
vector 13  ClientServerNetwork.server.ppp[0].ppp  rxPkOk:vector(packetBytes)  ETV
attr interpolationmode  none
attr source  rxPkOk
attr title  "packets received OK, vector(packetBytes)"
vector 17  ClientServerNetwork.server.ppp[0].ppp  passedUpPk:vector(packetBytes)  ETV
attr interpolationmode  none
attr source  packetSentToUpper
attr title  "packets passed to higher layer, vector(packetBytes)"
vector 766  ClientServerNetwork.server.tcp  "rcvd seq"  ETV
vector 767  ClientServerNetwork.server.tcp  "rcvd ack"  ETV
vector 763  ClientServerNetwork.server.tcp  "advertised window"  ETV
vector 761  ClientServerNetwork.server.tcp  "send window"  ETV
vector 776  ClientServerNetwork.server.tcp  tcpRcvQueueBytes  ETV
vector 762  ClientServerNetwork.server.tcp  "receive window"  ETV
vector 765  ClientServerNetwork.server.tcp  "sent ack"  ETV
vector 7  ClientServerNetwork.server.ppp[0].queue  rcvdPk:vector(packetBytes)  ETV
attr interpolationmode  none
attr title  "received packets, vector(packetBytes)"
vector 9  ClientServerNetwork.server.ppp[0].queue  queueingTime:vector  ETV
attr interpolationmode  none
attr title  "queueing time, vector"
vector 16  ClientServerNetwork.server.ppp[0].ppp  rcvdPkFromHL:vector(packetBytes)  ETV
attr interpolationmode  none
attr source  packetReceivedFromUpper
attr title  "packets received from higher layer, vector(packetBytes)"
vector 12  ClientServerNetwork.server.ppp[0].ppp  txPk:vector(packetBytes)  ETV
attr interpolationmode  none
attr source  packetSentToLower
attr title  "packets transmitted, vector(packetBytes)"
vector 306  ClientServerNetwork.router.ppp[25].ppp  rxPkOk:vector(packetBytes)  ETV
attr interpolationmode  none
attr source  rxPkOk
attr title  "packets received OK, vector(packetBytes)"
vector 310  ClientServerNetwork.router.ppp[25].ppp  passedUpPk:vector(packetBytes)  ETV
attr interpolationmode  none
attr source  packetSentToUpper
attr title  "packets passed to higher layer, vector(packetBytes)"
vector 190  ClientServerNetwork.router.ppp[15].queue  rcvdPk:vector(packetBytes)  ETV
attr interpolationmode  none
attr title  "received packets, vector(packetBytes)"
vector 192  ClientServerNetwork.router.ppp[15].queue  queueingTime:vector  ETV
attr interpolationmode  none
attr title  "queueing time, vector"
vector 199  ClientServerNetwork.router.ppp[15].ppp  rcvdPkFromHL:vector(packetBytes)  ETV
attr interpolationmode  none
attr source  packetReceivedFromUpper
attr title  "packets received from higher layer, vector(packetBytes)"
vector 195  ClientServerNetwork.router.ppp[15].ppp  txPk:vector(packetBytes)  ETV
attr interpolationmode  none
attr source  packetSentToLower
attr title  "packets transmitted, vector(packetBytes)"
vector 594  ClientServerNetwork.client[15].ppp[0].ppp  rxPkOk:vector(packetBytes)  ETV
attr interpolationmode  none
attr source  rxPkOk
attr title  "packets received OK, vector(packetBytes)"
vector 598  ClientServerNetwork.client[15].ppp[0].ppp  passedUpPk:vector(packetBytes)  ETV
attr interpolationmode  none
attr source  packetSentToUpper
attr title  "packets passed to higher layer, vector(packetBytes)"
vector 1390  ClientServerNetwork.client[15].tcp  "rcvd seq"  ETV
vector 1391  ClientServerNetwork.client[15].tcp  "rcvd ack"  ETV
vector 1385  ClientServerNetwork.client[15].tcp  "send window"  ETV
vector 1388  ClientServerNetwork.client[15].tcp  "sent seq"  ETV
vector 1392  ClientServerNetwork.client[15].tcp  "unacked bytes"  ETV
vector 768  ClientServerNetwork.server.tcp  "unacked bytes"  ETV
vector 769  ClientServerNetwork.server.tcp  "rcvd dupAcks"  ETV
vector 764  ClientServerNetwork.server.tcp  "sent seq"  ETV
vector 1404  ClientServerNetwork.client[15].tcp  "measured RTT"  ETV
vector 1405  ClientServerNetwork.client[15].tcp  "smoothed RTT"  ETV
vector 1406  ClientServerNetwork.client[15].tcp  RTTVAR  ETV
vector 1407  ClientServerNetwork.client[15].tcp  RTO  ETV
vector 1402  ClientServerNetwork.client[15].tcp  cwnd  ETV
vector 1393  ClientServerNetwork.client[15].tcp  "rcvd dupAcks"  ETV
vector 1448  ClientServerNetwork.client[17].tcp  tcpRcvQueueBytes  ETV
vector 1435  ClientServerNetwork.client[17].tcp  "advertised window"  ETV
vector 1434  ClientServerNetwork.client[17].tcp  "receive window"  ETV
vector 1437  ClientServerNetwork.client[17].tcp  "sent ack"  ETV
vector 624  ClientServerNetwork.client[17].ppp[0].queue  rcvdPk:vector(packetBytes)  ETV
attr interpolationmode  none
attr title  "received packets, vector(packetBytes)"
vector 626  ClientServerNetwork.client[17].ppp[0].queue  queueingTime:vector  ETV
attr interpolationmode  none
attr title  "queueing time, vector"
vector 633  ClientServerNetwork.client[17].ppp[0].ppp  rcvdPkFromHL:vector(packetBytes)  ETV
attr interpolationmode  none
attr source  packetReceivedFromUpper
attr title  "packets received from higher layer, vector(packetBytes)"
vector 629  ClientServerNetwork.client[17].ppp[0].ppp  txPk:vector(packetBytes)  ETV
attr interpolationmode  none
attr source  packetSentToLower
attr title  "packets transmitted, vector(packetBytes)"
vector 1472  ClientServerNetwork.client[13].tcp  tcpRcvQueueBytes  ETV
vector 1459  ClientServerNetwork.client[13].tcp  "advertised window"  ETV
vector 1458  ClientServerNetwork.client[13].tcp  "receive window"  ETV
vector 1461  ClientServerNetwork.client[13].tcp  "sent ack"  ETV
vector 552  ClientServerNetwork.client[13].ppp[0].queue  rcvdPk:vector(packetBytes)  ETV
attr interpolationmode  none
attr title  "received packets, vector(packetBytes)"
vector 554  ClientServerNetwork.client[13].ppp[0].queue  queueingTime:vector  ETV
attr interpolationmode  none
attr title  "queueing time, vector"
vector 561  ClientServerNetwork.client[13].ppp[0].ppp  rcvdPkFromHL:vector(packetBytes)  ETV
attr interpolationmode  none
attr source  packetReceivedFromUpper
attr title  "packets received from higher layer, vector(packetBytes)"
vector 557  ClientServerNetwork.client[13].ppp[0].ppp  txPk:vector(packetBytes)  ETV
attr interpolationmode  none
attr source  packetSentToLower
attr title  "packets transmitted, vector(packetBytes)"
vector 218  ClientServerNetwork.router.ppp[17].ppp  rxPkOk:vector(packetBytes)  ETV
attr interpolationmode  none
attr source  rxPkOk
attr title  "packets received OK, vector(packetBytes)"
vector 222  ClientServerNetwork.router.ppp[17].ppp  passedUpPk:vector(packetBytes)  ETV
attr interpolationmode  none
attr source  packetSentToUpper
attr title  "packets passed to higher layer, vector(packetBytes)"
vector 1414  ClientServerNetwork.server.tcp  "rcvd seq"  ETV
vector 1415  ClientServerNetwork.server.tcp  "rcvd ack"  ETV
vector 1411  ClientServerNetwork.server.tcp  "advertised window"  ETV
vector 1409  ClientServerNetwork.server.tcp  "send window"  ETV
vector 1424  ClientServerNetwork.server.tcp  tcpRcvQueueBytes  ETV
vector 1410  ClientServerNetwork.server.tcp  "receive window"  ETV
vector 1413  ClientServerNetwork.server.tcp  "sent ack"  ETV
vector 212  ClientServerNetwork.router.ppp[17].queue  rcvdPk:vector(packetBytes)  ETV
attr interpolationmode  none
attr title  "received packets, vector(packetBytes)"
vector 214  ClientServerNetwork.router.ppp[17].queue  queueingTime:vector  ETV
attr interpolationmode  none
attr title  "queueing time, vector"
vector 221  ClientServerNetwork.router.ppp[17].ppp  rcvdPkFromHL:vector(packetBytes)  ETV
attr interpolationmode  none
attr source  packetReceivedFromUpper
attr title  "packets received from higher layer, vector(packetBytes)"
vector 217  ClientServerNetwork.router.ppp[17].ppp  txPk:vector(packetBytes)  ETV
attr interpolationmode  none
attr source  packetSentToLower
attr title  "packets transmitted, vector(packetBytes)"
vector 174  ClientServerNetwork.router.ppp[13].ppp  rxPkOk:vector(packetBytes)  ETV
attr interpolationmode  none
attr source  rxPkOk
attr title  "packets received OK, vector(packetBytes)"
vector 178  ClientServerNetwork.router.ppp[13].ppp  passedUpPk:vector(packetBytes)  ETV
attr interpolationmode  none
attr source  packetSentToUpper
attr title  "packets passed to higher layer, vector(packetBytes)"
vector 1486  ClientServerNetwork.server.tcp  "rcvd seq"  ETV
vector 1487  ClientServerNetwork.server.tcp  "rcvd ack"  ETV
vector 1483  ClientServerNetwork.server.tcp  "advertised window"  ETV
vector 1481  ClientServerNetwork.server.tcp  "send window"  ETV
vector 1496  ClientServerNetwork.server.tcp  tcpRcvQueueBytes  ETV
vector 1482  ClientServerNetwork.server.tcp  "receive window"  ETV
vector 1485  ClientServerNetwork.server.tcp  "sent ack"  ETV
vector 168  ClientServerNetwork.router.ppp[13].queue  rcvdPk:vector(packetBytes)  ETV
attr interpolationmode  none
attr title  "received packets, vector(packetBytes)"
vector 170  ClientServerNetwork.router.ppp[13].queue  queueingTime:vector  ETV
attr interpolationmode  none
attr title  "queueing time, vector"
vector 177  ClientServerNetwork.router.ppp[13].ppp  rcvdPkFromHL:vector(packetBytes)  ETV
attr interpolationmode  none
attr source  packetReceivedFromUpper
attr title  "packets received from higher layer, vector(packetBytes)"
vector 173  ClientServerNetwork.router.ppp[13].ppp  txPk:vector(packetBytes)  ETV
attr interpolationmode  none
attr source  packetSentToLower
attr title  "packets transmitted, vector(packetBytes)"
vector 630  ClientServerNetwork.client[17].ppp[0].ppp  rxPkOk:vector(packetBytes)  ETV
attr interpolationmode  none
attr source  rxPkOk
attr title  "packets received OK, vector(packetBytes)"
vector 634  ClientServerNetwork.client[17].ppp[0].ppp  passedUpPk:vector(packetBytes)  ETV
attr interpolationmode  none
attr source  packetSentToUpper
attr title  "packets passed to higher layer, vector(packetBytes)"
vector 1438  ClientServerNetwork.client[17].tcp  "rcvd seq"  ETV
vector 1439  ClientServerNetwork.client[17].tcp  "rcvd ack"  ETV
vector 1433  ClientServerNetwork.client[17].tcp  "send window"  ETV
vector 1436  ClientServerNetwork.client[17].tcp  "sent seq"  ETV
vector 1440  ClientServerNetwork.client[17].tcp  "unacked bytes"  ETV
vector 558  ClientServerNetwork.client[13].ppp[0].ppp  rxPkOk:vector(packetBytes)  ETV
attr interpolationmode  none
attr source  rxPkOk
attr title  "packets received OK, vector(packetBytes)"
vector 562  ClientServerNetwork.client[13].ppp[0].ppp  passedUpPk:vector(packetBytes)  ETV
attr interpolationmode  none
attr source  packetSentToUpper
attr title  "packets passed to higher layer, vector(packetBytes)"
vector 1462  ClientServerNetwork.client[13].tcp  "rcvd seq"  ETV
vector 1463  ClientServerNetwork.client[13].tcp  "rcvd ack"  ETV
vector 1457  ClientServerNetwork.client[13].tcp  "send window"  ETV
vector 1460  ClientServerNetwork.client[13].tcp  "sent seq"  ETV
vector 1464  ClientServerNetwork.client[13].tcp  "unacked bytes"  ETV
vector 1416  ClientServerNetwork.server.tcp  "unacked bytes"  ETV
vector 1488  ClientServerNetwork.server.tcp  "unacked bytes"  ETV
vector 1544  ClientServerNetwork.client[18].tcp  tcpRcvQueueBytes  ETV
vector 1531  ClientServerNetwork.client[18].tcp  "advertised window"  ETV
vector 1530  ClientServerNetwork.client[18].tcp  "receive window"  ETV
vector 1533  ClientServerNetwork.client[18].tcp  "sent ack"  ETV
vector 642  ClientServerNetwork.client[18].ppp[0].queue  rcvdPk:vector(packetBytes)  ETV
attr interpolationmode  none
attr title  "received packets, vector(packetBytes)"
vector 644  ClientServerNetwork.client[18].ppp[0].queue  queueingTime:vector  ETV
attr interpolationmode  none
attr title  "queueing time, vector"
vector 651  ClientServerNetwork.client[18].ppp[0].ppp  rcvdPkFromHL:vector(packetBytes)  ETV
attr interpolationmode  none
attr source  packetReceivedFromUpper
attr title  "packets received from higher layer, vector(packetBytes)"
vector 647  ClientServerNetwork.client[18].ppp[0].ppp  txPk:vector(packetBytes)  ETV
attr interpolationmode  none
attr source  packetSentToLower
attr title  "packets transmitted, vector(packetBytes)"
vector 1568  ClientServerNetwork.client[11].tcp  tcpRcvQueueBytes  ETV
vector 1555  ClientServerNetwork.client[11].tcp  "advertised window"  ETV
vector 1554  ClientServerNetwork.client[11].tcp  "receive window"  ETV
vector 1557  ClientServerNetwork.client[11].tcp  "sent ack"  ETV
vector 516  ClientServerNetwork.client[11].ppp[0].queue  rcvdPk:vector(packetBytes)  ETV
attr interpolationmode  none